12
Properties=species:S:1:pos:R:3 atomization_energy=-1169.33 smiles=C.C.N.C.C.H.H.H.H.H.H.H pbc="F F F"
C        0.99235960      -0.04100998      -0.01330000
C        2.51999896       0.00000000       0.00000000
N        3.05214892      -0.70444970      -1.16318956
C        3.00201878       1.36116943       0.00000000
C        3.39929870       2.48306901       0.00000000
H        0.58288975       0.47090980       0.86413968
H        0.62741978      -1.07316963       0.00299000
H        0.58112980       0.45019981      -0.90233967
H        2.87404898      -0.51451980       0.90033963
H        2.74532900      -0.22571991      -2.00866922
H        2.65203885      -1.63905931      -1.20476947
H        3.76342860       3.48425863      -0.00308000
