16
Properties=species:S:1:pos:R:3 atomization_energy=-1645.9 smiles=C.N.C.C.C.C.C.H.H.H.H.H.H.H.H.H pbc="F F F"
C        2.89272881      -1.18654951      -0.46214981
N        2.34770919       0.04809998       0.08501996
C        3.31261862       1.13825961       0.04676998
C        2.80987887       2.32039913       0.83287968
C        2.72667895       3.40384873       0.04313999
C        3.13116873       3.04632890      -1.29182955
C        3.46233861       1.74701937      -1.32047949
H        2.14123914      -1.97864925      -0.38372985
H        3.78031839      -1.51387941       0.08921996
H        3.14588872      -1.08591955      -1.52195944
H        2.07987924      -0.11443995       1.05305958
H        4.28622843       0.83068970       0.44759982
H        2.56475899       2.29820912       1.88321920
H        2.39716914       4.38811828       0.33765988
H        3.14092864       3.72774845      -2.12846916
H        3.79417844       1.21100949      -2.19561905
