18
Properties=species:S:1:pos:R:3 atomization_energy=-1759.92 smiles=C.C.C.C.C.N.C.H.H.H.H.H.H.H.H.H.H.H pbc="F F F"
C        1.00067959      -0.05374998       0.00334000
C        2.51999896       0.00000000       0.00000000
C        3.00201878       1.36116943       0.00000000
C        3.39929870       2.48306901       0.00000000
C        3.88131852       3.84423844       0.00000000
N        2.75528902       4.76743827      -0.11930996
C        3.20346870       6.15039776      -0.06071998
H        0.65733977      -1.09295959       0.00331000
H        0.58505980       0.44192984      -0.88064965
H        0.58898979       0.44057984       0.88990964
H        2.89538889      -0.53275979      -0.88090968
H        2.89929876      -0.53413979       0.87839967
H        4.57365795       3.99073843      -0.83700965
H        4.43527848       4.03771848       0.92624963
H        2.10472921       4.58674839       0.64404973
H        3.89163836       6.37916733      -0.88087965
H        3.69442861       6.37480755       0.89184963
H        2.34142917       6.81738749      -0.15939994
