17
Properties=species:S:1:pos:R:3 atomization_energy=-1696.51 smiles=C.C.C.C.C.C.O.H.H.H.H.H.H.H.H.H.H pbc="F F F"
C        0.59965975       1.06898964      -0.36491986
C       -0.57112978       0.22504991       0.05801998
C        0.80545967      -0.37902984      -0.00961000
C        1.60392938      -0.85174965       1.17964951
C        1.52111943      -0.14750994       2.54179911
C        1.32367943      -1.55016945       3.10240877
O        1.14513955      -2.09844918       1.77576936
H        0.67265975       1.34931944      -1.41008939
H        0.94965960       1.82999926       0.32288986
H       -1.28817946      -0.07080997      -0.70020971
H       -1.01405958       0.40809985       1.02939962
H        0.98619963      -1.07192955      -0.82661966
H        2.64848906      -0.97749962       0.85871966
H        0.66603971       0.51567980       2.69212899
H        2.43662896       0.35698987       2.86045892
H        2.19570913      -1.98727922       3.59803858
H        0.43331983      -1.68571927       3.72269855
