21
Properties=species:S:1:pos:R:3 atomization_energy=-1984.34 smiles=C.C.C.C.C.O.C.H.H.H.H.H.H.H.H.H.H.H.H.H.H pbc="F F F"
C        2.51334902      -0.79448969      -1.19092948
C        2.15211916       0.06058997       0.01889999
C        2.73428900       1.49396947      -0.00568000
C        2.16285913       2.28216918      -1.19648946
C        2.34730900       2.23684922       1.28300944
O        4.15666844       1.49963936      -0.20491991
C        4.95424818       0.92337961       0.81855970
H        2.13468913      -1.81226933      -1.05277956
H        3.59597855      -0.85654968      -1.33214944
H        2.06529916      -0.39985985      -2.10695918
H        2.50351895      -0.46593982       0.91456966
H        1.05857958       0.10658996       0.10310996
H        2.50586891       1.87108926      -2.15231926
H        2.51340907       3.32159858      -1.17567958
H        1.06745963       2.29012921      -1.19091951
H        2.65374890       1.68062937       2.17484916
H        1.26427952       2.38812913       1.34713943
H        2.83930877       3.21454881       1.33348944
H        5.99791751       0.96702964       0.49371979
H        4.70024800      -0.12643995       0.98494964
H        4.87320796       1.48919940       1.74984926
