13
Properties=species:S:1:pos:R:3 atomization_energy=-1453.51 smiles=C.C.C.C.O.C.C.H.H.H.H.H.H pbc="F F F"
C        0.92284966       0.00224000      -0.12926995
C        2.25362900       0.00739000       0.03354999
C        2.98998888       1.25957947       0.12325996
C        4.31997824       1.20026951       0.28846989
O        5.03617812       0.01791999       0.37861987
C        4.32909850      -1.16976948       0.29021990
C        2.99922875      -1.23919956       0.12504995
H        0.35921985      -0.92304963      -0.19776992
H        0.35244986       0.92335961      -0.19909993
H        2.47302900       2.20914905       0.05781997
H        4.97136785       2.05858917       0.36837985
H        4.98656828      -2.02290915       0.37130986
H        2.48943912      -2.19280909       0.06091998
