15
Properties=species:S:1:pos:R:3 atomization_energy=-1537.44 smiles=N.C.N.C.C.C.C.H.H.H.H.H.H.H.H pbc="F F F"
N        1.16865960      -0.06105998      -0.79308969
C        2.31961917       0.10445996      -0.23633990
N        2.96271894       1.28712950       0.00274000
C        4.27602819       1.36498947       0.64535977
C        4.57757817       2.88061893       0.69400975
C        3.36998866       3.50504871       0.05710998
C        2.50934906       2.54981896      -0.30429989
H        0.94899963      -1.06073954      -0.83539965
H        2.89564879      -0.77374970       0.10579996
H        5.03369821       0.83431967       0.05801998
H        4.24613854       0.93975963       1.65476933
H        5.48651775       3.11909871       0.13287994
H        4.70077790       3.22427870       1.72580928
H        3.22265874       4.56456797      -0.08554997
H        1.54668942       2.66521887      -0.78674968
