15
Properties=species:S:1:pos:R:3 atomization_energy=-1607.72 smiles=O.C.C.C.C.C.C.H.H.H.H.H.H.H.H pbc="F F F"
O        0.89212965      -0.07270997      -0.16962994
C        2.11460911      -0.01041000      -0.06280998
C        2.83204894       1.28100946       0.26311990
C        4.24531847       1.28794945      -0.30386989
C        5.03697801       0.05399998       0.12423995
C        4.25147838      -1.21197958      -0.04526998
C        2.91762886      -1.25432947      -0.16253994
H        2.26588901       2.11316918      -0.16892994
H        2.84722894       1.39927939       1.35192943
H        4.77222802       2.19561905       0.01181999
H        4.19280833       1.31654943      -1.40037943
H        5.34266774       0.14308994       1.17309949
H        5.95230762      -0.00522000      -0.47577983
H        4.81406807      -2.14222904      -0.07703997
H        2.36864915      -2.17884911      -0.29600989
