13
Properties=species:S:1:pos:R:3 atomization_energy=-1367.41 smiles=O.C.C.O.C.C.C.H.H.H.H.H.H pbc="F F F"
O        1.32225944      -0.59434975      -0.92003963
C        2.68723907      -0.19507993      -0.90015965
C        2.91149898       0.98350959       0.04064999
O        1.98730925       1.39536939       0.75073968
C        4.25331837       1.68164930      -0.00107000
C        5.38881811       0.74947972      -0.02545999
C        6.32321741      -0.00343000      -0.05440998
H        0.88850964      -0.12592995      -0.17688994
H        2.96924877       0.09221996      -1.91633919
H        3.28592878      -1.04740957      -0.56934978
H        4.32865844       2.32487901       0.88418967
H        4.26624833       2.32737912      -0.88469963
H        7.15727719      -0.66790974      -0.07907997
