16
Properties=species:S:1:pos:R:3 atomization_energy=-1583.85 smiles=O.C.C.C.C.N.C.H.H.H.H.H.H.H.H.H pbc="F F F"
O        1.27435952       0.10460996       0.68446973
C        2.61681896       0.04318998       0.19359993
C        2.84985899      -1.30830943      -0.47242982
C        2.43728906      -1.05920953      -1.89247925
C        3.36032866      -0.38221984      -2.86305894
N        2.33307902       0.39211984      -2.16945911
C        2.81542889       1.06154953      -0.93547966
H        0.69696972       0.13197995      -0.10253996
H        3.28982882       0.21130992       1.03887958
H        2.25001914      -2.10421912      -0.01973999
H        3.90796848      -1.59041943      -0.43571984
H        1.62426942      -1.67309931      -2.25228912
H        4.39934803      -0.22784991      -2.59753909
H        3.18824883      -0.54304979      -3.92123858
H        3.86885840       1.35218946      -1.02896958
H        2.22348903       1.96665922      -0.76376968
