16
Properties=species:S:1:pos:R:3 atomization_energy=-1588.78 smiles=N.C.C.O.C.C.C.H.H.H.H.H.H.H.H.H pbc="F F F"
N        0.92865964      -0.07178997      -0.08941997
C        2.37288907      -0.02653999       0.13723994
C        3.03616878       1.24681946      -0.45060982
O        3.20394863       1.16164958      -1.86882925
C        4.08975827       0.10260996      -2.24152921
C        3.77987858      -1.18802955      -1.54096945
C        2.97865870      -1.25793945      -0.46538980
H        0.50762980       0.81119970       0.18782993
H        0.51397978      -0.79544969       0.49167982
H        2.54726890      -0.02337999       1.21968956
H        2.42697905       2.13233916      -0.23558991
H        4.01778834       1.41805940       0.01177000
H        5.12137777       0.40674985      -2.03265924
H        3.99352846      -0.03407999      -3.32344868
H        4.21667836      -2.09321911      -1.95096926
H        2.75752896      -2.21914919      -0.01240999
