14
Properties=species:S:1:pos:R:3 atomization_energy=-1446.88 smiles=C.C.C.C.C.C.H.H.H.H.H.H.H.H pbc="F F F"
C        5.39434770      -1.74844933      -0.51708980
C        4.57033828      -0.94515965      -0.17804994
C        3.55382863       0.02937999       0.23700991
C        4.27139841       1.34431950       0.24453990
C        4.39841844       2.17050906      -1.01224961
C        3.48801862       2.62523901       0.09402996
H        6.12850751      -2.46040891      -0.81966970
H        3.17762871      -0.19963992       1.23894950
H        2.70669885       0.02847999      -0.45685981
H        5.09578784       1.36111946       0.95151959
H        3.94636850       1.79932928      -1.92511919
H        5.32468813       2.71227891      -1.16713956
H        3.79665860       3.48047871       0.68489970
H        2.41874902       2.56832897      -0.07560997
