11
Properties=species:S:1:pos:R:3 atomization_energy=-1224.18 smiles=N.C.N.C.C.C.O.H.H.H.H pbc="F F F"
N        1.09411956      -0.08062997       0.29930988
C        2.34430903      -0.08216997       0.00740000
N        3.20985873      -1.11196960      -0.19491992
C        4.45976824      -0.64511974      -0.50239980
C        4.55416839       0.69617973      -0.52731978
C        3.18849864       1.18252949      -0.19604992
O        2.79497896       2.32163908      -0.10201997
H        0.78475967       0.90134964       0.36927986
H        2.94879883      -2.08557915      -0.15063995
H        5.25483779      -1.35327953      -0.69748971
H        5.39570777       1.32893953      -0.73539971
