13
Properties=species:S:1:pos:R:3 atomization_energy=-1338.76 smiles=C.O.C.N.C.C.N.H.H.H.H.H.H pbc="F F F"
C        1.16278949       0.08037997      -0.41954982
O        2.38131896       0.40819984      -1.08894954
C        3.01856893       1.48385944      -0.49676981
N        2.33009899       2.67130889      -0.51663980
C        4.25987849       1.28585952      -0.03124999
C        5.05235810       2.29808900       0.56448975
N        5.70525766       3.13179880       1.03873960
H        0.80481969      -0.87149968      -0.82280965
H        0.39474985       0.83729964      -0.60881975
H        1.32265951      -0.04363998       0.65725972
H        1.72824933       2.73755896      -1.33457951
H        2.91241897       3.49940860      -0.40788985
H        4.70381798       0.29989989      -0.10392996
