18
Properties=species:S:1:pos:R:3 atomization_energy=-1697.8 smiles=C.N.C.C.C.O.C.H.H.H.H.H.H.H.H.H.H.H pbc="F F F"
C        1.13717951       0.05436998       0.14273994
N        2.58584909      -0.03418999      -0.07562997
C        2.84134887      -0.76283972      -1.32381948
C        3.14375879       1.33224949      -0.18884993
C        3.22150862       2.01777926       1.18900948
O        4.62546812       2.33509919       0.97406962
C        4.67967796       1.31852948      -0.06600997
H        0.91274966       0.56095976       1.08716960
H        0.70083972      -0.94777960       0.21791991
H        0.62747977       0.59303977      -0.66430972
H        2.42571916      -1.77497931      -1.26658949
H        3.91621845      -0.87937967      -1.49751939
H        2.40626897      -0.25989990      -2.19513912
H        2.75147882       1.96194920      -0.99541962
H        3.10062882       1.39086944       2.07881920
H        2.61426890       2.92155892       1.28901947
H        5.21588793       1.67400934      -0.95010963
H        5.15360804       0.40641983       0.31187989
