23
Properties=species:S:1:pos:R:3 atomization_energy=-2191.69 smiles=C.C.C.C.C.C.C.H.H.H.H.H.H.H.H.H.H.H.H.H.H.H.H pbc="F F F"
C        0.95826965      -0.05109998      -0.01177999
C        2.47763910      -0.01436000       0.01897999
C        3.00534879       1.41972945      -0.00810000
C        4.53479844       1.44704948       0.01181999
C        5.06926783       2.88055887       0.00193000
C        6.59766752       2.90124878       0.00629000
C        7.13677729       4.32249852       0.00884000
H        0.60370979      -1.08657952       0.01330000
H        0.57263980       0.41762984      -0.92308962
H        0.53481982       0.47376982       0.85072966
H        2.86778889      -0.57150979      -0.84053964
H        2.83084886      -0.52356979       0.92307965
H        2.61596886       1.97128924       0.85638964
H        2.64082904       1.92978921      -0.90790962
H        4.92209815       0.90474962      -0.85923966
H        4.89995810       0.92645963       0.90530967
H        4.69099805       3.41928863       0.87928965
H        4.69699798       3.40628877      -0.88562966
H        6.97907732       2.37387897      -0.87562965
H        6.97515710       2.37228903       0.88910962
H        6.80056709       4.87185799      -0.87647969
H        8.23127673       4.31260815       0.00709000
H        6.80367732       4.86692794       0.89853962
