13
Properties=species:S:1:pos:R:3 atomization_energy=-1311.07 smiles=C.N.C.C.S.C.N.H.H.H.H.H.H pbc="F F F"
C        0.99455961       0.03659999      -0.00840000
N        2.43876898      -0.04225998      -0.00143000
C        3.27213863       1.06685958       0.00408000
C        4.58513802       0.80073968       0.01108000
S        4.87658819      -0.92164963       0.01100000
C        3.12357885      -1.24488950      -0.00071000
N        2.70327901      -2.45565902      -0.00716000
H        0.64301972       1.07415953       0.00128000
H        0.58028979      -0.46376981       0.87323962
H        0.58997975      -0.44473984      -0.90495962
H        2.83121878       2.05540917       0.00232000
H        5.38242808       1.52983937       0.01608999
H        1.68453937      -2.46534905      -0.01421999
