13
Properties=species:S:1:pos:R:3 atomization_energy=-1240.58 smiles=C.C.S.O.O.C.C.H.H.H.H.H.H pbc="F F F"
C        0.97055963      -0.05049998       0.01057999
C        2.48073899       0.06516998       0.00179000
S        2.99204891       1.76879934      -0.00498000
O        2.79002898       2.39894909      -1.28770949
O        2.80513883       2.40496896       1.27633944
C        4.77832787       1.71892935      -0.01518999
C        5.98051775       1.68698938      -0.02193999
H        0.66817973      -1.10195962       0.01481999
H        0.53467978       0.42831982      -0.87227963
H        0.54464977       0.43256983       0.89598962
H        2.89573887      -0.40908984      -0.89217967
H        2.90580891      -0.40480983       0.89334967
H        7.04529711       1.67568936      -0.02796999
