12
Properties=species:S:1:pos:R:3 atomization_energy=-1331.8 smiles=O.C.C.C.C.C.N.H.H.H.H.H pbc="F F F"
O        0.92603963      -0.08519996       0.00936999
C        2.29455915      -0.01322000      -0.00075000
C        2.98367884       1.12902959      -0.00294000
C        2.43999909       2.46053911       0.00485000
C        3.42239861       3.36191860      -0.00157000
C        4.59505817       2.49005910      -0.01337000
N        4.35407828       1.21562955      -0.01386999
H        0.68105973      -1.02745957       0.00429000
H        2.78476888      -0.97805961      -0.00738000
H        1.38139945       2.67025894       0.01425000
H        3.39573855       4.43320836       0.00094000
H        5.60062800       2.93546893      -0.02096999
