15
Properties=species:S:1:pos:R:3 atomization_energy=-1422.94 smiles=O.C.C.N.C.N.C.H.H.H.H.H.H.H.H pbc="F F F"
O        0.82667965      -0.19691993      -0.11564995
C        2.25033910       0.04234998      -0.10533996
C        2.77064893       1.13013959       0.85947969
N        3.97449839       0.27553990       1.09161958
C        3.12338885      -0.90129962       0.75114972
N        4.46631825       0.28489987       2.35161906
C        5.62457777       0.85314964       2.41346899
H        0.71731973      -1.02426960      -0.61462973
H        2.62522891       0.16465993      -1.13023952
H        2.13972919       1.29101944       1.74307934
H        2.98870881       2.09765914       0.39791983
H        3.64332850      -1.68704931       0.19527992
H        2.59753909      -1.35547948       1.60073941
H        6.14027775       0.92940964       3.38396856
H        6.14667738       1.27871955       1.53901943
