11
Properties=species:S:1:pos:R:3 atomization_energy=-1180.34 smiles=C.C.C.N.C.N.S.H.H.H.H pbc="F F F"
C        2.93803892      -1.21462956       0.38744985
C        2.38600904      -0.02433999       0.11603995
C        3.07443886       1.22193947       0.08849997
N        2.51528894       2.38967894      -0.18089992
C        3.48037853       3.37894869      -0.11808995
N        4.73984836       3.07291881       0.17761993
S        4.76986822       1.42095944       0.40476984
H        2.32065903      -2.10891917       0.38223984
H        3.98784848      -1.35692950       0.61926973
H        1.32251947       0.02213999      -0.10559996
H        3.22103877       4.41283816      -0.30889989
