12
Properties=species:S:1:pos:R:3 atomization_energy=-1269.98 smiles=C.C.C.C.C.O.H.H.H.H.H.H pbc="F F F"
C        0.99999962       0.00000000       0.00000000
C        2.44399905       0.00000000       0.00000000
C        3.63415853       0.00000000       0.00000000
C        5.07815797       0.00000000       0.00000000
C        5.62367796       1.40139948      -0.05890998
O        6.57485728       1.78733926       0.61454975
H        0.60599976       1.02087959       0.01163999
H        0.60591977      -0.52047980       0.87826966
H        0.60592973      -0.50031980      -0.88991967
H        5.46238781      -0.53746980      -0.87299966
H        5.46840793      -0.48961982       0.89801963
H        5.18121812       2.05967925      -0.82754969
