11
Properties=species:S:1:pos:R:3 atomization_energy=-1153.6 smiles=C.C.O.C.C.N.H.H.H.H.H pbc="F F F"
C        1.02152959      -0.01752999      -0.07321997
C        2.49714910       0.12547995       0.03879998
O        3.23240882      -0.49766982      -1.01918960
C        3.28252862       0.93987962      -0.95951963
C        4.56018800       1.46703942      -0.58818978
N        5.58356788       1.91994930      -0.27881989
H        0.52365981       0.70418974       0.58147978
H        0.71557971      -1.02285957       0.23213992
H        0.66818976       0.15063995      -1.09581951
H        2.86335897       0.00597000       1.05021960
H        2.74264899       1.48295938      -1.72450928
